46
	Energy:     263.5919848
Cl         1.48778       -0.05132       -3.36613
O          0.03536        1.79380       -0.41078
O         -0.93405       -2.16761       -1.09114
O         -2.78697        2.51500        0.14782
O          2.97766        2.47102       -0.23939
N         -1.72151       -1.81779        2.53875
C         -0.76226       -0.16225        0.40827
C         -1.49441       -1.49169        0.02856
C          0.62485       -0.23864        0.24289
C         -1.09952        0.97868       -0.52771
C         -1.14293       -2.37626        1.24231
C          1.07938        0.97845       -0.10845
C          1.33906       -1.31496        0.68416
C         -0.72677        0.27641        1.95139
C         -2.98566       -1.17622       -0.39440
C         -2.50827        1.36947       -0.16441
C          0.50147       -2.55298        1.19652
C          2.45759        1.22735       -0.04604
C         -1.80506       -0.34725        2.69631
C         -3.57341        0.25000       -0.10586
C          2.74748       -1.15855        0.64193
C          3.30208        0.12473        0.29008
C         -3.03908       -2.35069        2.96219
C          2.21792        3.62983       -0.27998
H          2.32076       -0.35506       -2.31735
H         -0.47884       -1.52991       -1.69501
H         -1.12268        0.62665       -1.58414
H         -1.54881       -3.40543        1.11812
H         -0.63856        1.37557        2.08939
H          0.14268       -0.13575        2.53668
H         -3.68231       -2.02302       -0.21070
H         -2.93655       -1.12877       -1.50714
H          0.86125       -2.92578        2.17553
H          0.73345       -3.35020        0.45292
H         -1.76108       -0.06503        3.76948
H         -2.71789        0.09721        2.31531
H         -4.09266        0.23458        0.86457
H         -4.39061        0.45856       -0.83073
H          3.40177       -1.96798        0.93537
H          4.37570        0.26969        0.32723
H         -3.00641       -2.53099        4.05816
H         -3.33652       -3.27230        2.43320
H         -3.87990       -1.62680        2.81639
H          2.88031        4.51635       -0.33924
H          1.60801        3.72733        0.64945
H          1.54816        3.63071       -1.16474
