33
	Energy:      36.8014438
O          1.18541        0.51319        0.24642
O          2.98701        0.45544       -1.07689
C          2.86002       -1.90050        1.37949
C          3.21016       -0.42709        1.20914
C          2.01112       -4.61138        1.49579
C          3.76739       -2.94577        1.17067
C          1.55047       -2.24213        1.75445
C          2.36677        0.22628        0.10197
C          3.34714       -4.28066        1.22864
C          1.13689       -3.57502        1.82676
C          1.59274       -6.06427        1.41048
C          4.70648       -0.11797        1.08803
C          0.08405       -6.38481        1.30338
C         -0.56641       -5.80232        0.04290
C         -0.12114       -7.90411        1.30137
H          3.90761        0.15186       -1.14698
H          2.89783        0.08089        2.13382
H          4.81179       -2.75803        0.93930
H          0.81557       -1.46365        1.96080
H          4.07270       -5.06890        1.03474
H          0.10378       -3.77233        2.09967
H          2.00038       -6.57141        2.29499
H          2.09167       -6.50424        0.53539
H          5.17225       -0.63018        0.23882
H          5.24248       -0.42876        1.99134
H          4.87131        0.95646        0.95165
H         -0.43197       -5.98315        2.18398
H         -0.12305       -6.22393       -0.86510
H         -0.46893       -4.71550       -0.01445
H         -1.63886       -6.02678        0.03094
H          0.32204       -8.36198        0.40975
H         -1.18857       -8.14970        1.30957
H          0.33583       -8.36558        2.18242
