26
	Energy:      35.9895697
C          1.58906        0.40115       -0.68463
N          2.92070       -0.02172       -0.27544
C          2.94740       -0.75202        1.00635
C          2.32361       -2.17361        0.96362
C          0.81660       -2.33085        1.00344
C          0.25192       -3.48772        0.43932
C         -1.12721       -3.70278        0.46692
C         -1.96476       -2.76597        1.06406
C         -1.42009       -1.62638        1.65079
C         -0.03759       -1.41902        1.63682
C          4.43212       -0.89075        1.38707
H          1.67500        1.05933       -1.55553
H          1.08203        0.96805        0.10257
H          0.97111       -0.44474       -0.99437
H          3.50608        0.81003       -0.19431
H          2.48058       -0.14308        1.78846
H          2.70014       -2.74679        1.82239
H          2.70744       -2.68310        0.06844
H          0.89060       -4.23409       -0.02911
H         -1.54464       -4.60206        0.02188
H         -3.03915       -2.92688        1.07883
H         -2.07220       -0.89695        2.12395
H          0.35098       -0.52708        2.11897
H          4.98518       -1.46912        0.63746
H          4.54209       -1.39813        2.35169
H          4.91178        0.09043        1.47934
