     140
 i =        1, E =     -1210.0000635150
  C         9.2870649963        2.2422030932        1.9788291130
  C         3.0953678207        9.1143328834        5.0060067836
  C         4.0300635467        9.0948150153        6.1576418764
  C         4.0236536315        9.7587244564        7.3852745076
  C         3.6087821588       10.7107827277        0.3837794596
  C         2.8302233931       12.0699630983        7.5137553371
  C         3.6834170958       12.9023048935        6.6131208909
  C         6.3229890022        9.7641486719        1.8733922638
  C         5.8055070104        9.3282212493        0.5569713142
  C         2.6003546481       10.4364466187        1.3134051307
  C        10.1978102504        2.2010814805        5.0052938662
  C         2.2044330565        9.1733695894        1.9875323748
  C        11.1296883014        2.1783534454        6.1581078914
  C         5.2445908931        2.1966398731        2.9552123855
  C         4.3123411628        2.1784035410        1.8024879761
  C         4.3216173952        2.8399921196        0.5733416494
  C         4.7354584769        3.7943642302        7.5746071014
  C         5.5185854923        5.1548465437        0.4420706293
  C         4.6558881945        5.9822279001        1.3406697612
  C         2.0166528571        2.8500547016        6.0847466042
  C         2.5411873129        2.4130418713        7.3974921979
  C         5.7434065778        3.5135258293        6.6444129071
  C         6.1505305822        2.2420716560        5.9824753885
  C        11.1210837191        2.8406990106        7.3862779111
  C        12.3425675948        9.1156499132        2.9558996172
  C        11.4117051091        9.0975964061        1.8024733573
  C        11.4214524018        9.7574525120        0.5724554065
  C        11.8330697116       10.7140481273        7.5738384997
  C        12.6195014539       12.0743149876        0.4428593684
  C        11.7591445876       12.9054613235        1.3379561712
  C         9.1167001383        9.7700139322        6.0824443764
  C         9.6392920026        9.3349623019        7.3972710714
  C        12.8425775266       10.4343429550        6.6461147781
  C        13.2457846551        9.1649665025        5.9793991463
  C        10.7045072849        3.7909760670        0.3855242314
  C         9.9273209060        5.1502828013        7.5146278920
  C        10.7858141052        5.9825547977        6.6185245247
  C        13.4198875686        2.8470311064        1.8722707627
  C        12.9022804167        2.4083100311        0.5571663041
  C         9.6954491149        3.5114900898        1.3153497889
  F         1.8141648806       12.7740177224        3.9839139028
  F        14.7789961617        0.1340329296        2.2394917744
  F         1.7891822112        1.2912595736        3.9265718782
  F         6.5194883231        5.8566330226        3.9710068185
  F         7.7476854899        7.0532636538        5.7144933177
  F         6.5462884564        8.2108733664        4.0306087572
  F        13.6180928458       12.7762350971        3.9710367530
  F         0.6488283531        0.1343395980        5.7140754962
  F        13.6452812004        1.2921567353        4.0298442245
  F         8.9126711559        5.8548272110        3.9833574166
  F         7.6805042259        7.0545794466        2.2395262371
  F         8.8870484045        8.2107070689        3.9271160388
  N         5.9833815307        5.6898537292        7.2807436799
  N        12.2352114651        1.4123784584        6.1749891126
  N         2.4392638256        1.5658735542        0.6904614413
  N         6.4390606078        4.6593106920        6.5276353353
  N        10.3067640219        8.3316611588        1.7887208284
  N        13.0830620447       12.6105806563        7.2805953880
  N         9.5382177937        8.4868723512        0.6896606833
  N        13.5382081362       11.5797345344        6.5280534506
  N         9.4688982756        5.6784873544        0.6852593897
  N        13.0121646774        1.5571637574        7.2718493642
  N         8.9962164022        4.6543722927        1.4320770677
  N         5.1378925710        8.3317970475        6.1740416636
  N         2.3719657636       12.5994184270        0.6839356670
  N         5.9134629589        8.4756061293        7.2715917043
  N         1.8983217585       11.5764500771        1.4312753777
  N         3.2077562413        1.4126187718        1.7897148794
 Ni         8.0621569249        7.1137953450        0.2486220861
 Ni         0.9612914906        0.1948098982        0.2478084751
 Si         7.7174098161        7.0207629378        3.9773127608
 Si         0.6188526526        0.1021679824        3.9770338854
  H        14.3486409818        2.3179429243        2.0726316377
  H         8.7232012813        2.4516281765        2.8932347880
  H        10.1815413065        1.6678655757        2.2367784046
  H         8.6605730286        1.6316137879        1.3161365303
  H         8.2808364634        4.8980921434        2.1157852355
  H         3.4740147331        9.7583027807        4.2035164310
  H         2.1143167926        9.4835110161        5.3210473916
  H         2.9767700748        8.0994826269        4.6017860345
  H         3.0780736500       13.4027388642        5.8552927409
  H         4.4409060102       12.2965460768        6.1006455256
  H        10.5750453453        2.8445772083        4.2029630903
  H         4.1990187138       13.6870243332        7.1784740599
  H         5.5699969987        7.9081556357        5.3458305656
  H         5.6360438218        9.5060562965        2.6788924181
  H         6.5186927478       10.8371926398        1.9369120761
  H         7.2512610174        9.2346041303        2.0724036249
  H         1.6204851553        9.3686539836        2.8909081084
  H         3.0891205349        8.5833344012        2.2378091060
  H         1.5745304089        8.5837298303        1.3188535372
  H         1.1823521462       11.8172177711        2.1155570405
  H         9.2135917324        2.5621638897        5.3201788088
  H         4.8806550300        2.8632691372        3.7452270624
  H         6.2338451760        2.5362897631        2.6324467711
  H         5.3454079459        1.1855351099        3.3698395024
  H         5.2657588726        6.5047649654        2.0814282094
  H         3.9179640077        5.3746758358        1.8778690731
  H         4.1095359827        6.7445152216        0.7698013619
  H         2.7705124460        0.9894031664        2.6151988083
  H         2.7071489243        2.6004857208        5.2786878384
  H         1.8083798819        3.9222091015        6.0382242740
  H         1.0979608321        2.3036064591        5.8828597589
  H        10.0768300908        1.1882174756        4.6050932138
  H         6.7327370527        2.4484872142        5.0783222607
  H         5.2556979961        1.6779126218        5.7031650112
  H         6.7657434516        1.6183107559        6.6445947096
  H         7.1480472824        4.9000175677        5.8368506438
  H        11.9771726401        9.7827791600        3.7450290572
  H        13.3316924435        9.4540040591        2.6321785758
  H        12.4446325050        8.1047938839        3.3707006466
  H        12.3671503424       13.4260817294        2.0808418757
  H        11.0245685270       12.2930320172        1.8678775358
  H        11.2070849851       13.6649734057        0.7695587229
  H        10.1800487386        6.4835706334        5.8593349789
  H         9.8687965414        7.9096238657        2.6147191274
  H         9.8075155652        9.5150573306        5.2778860403
  H        11.5387606345        5.3790740236        6.1007311962
  H         8.9011903304       10.8422622477        6.0429516100
  H         8.1968098475        9.2245497912        5.8821465285
  H        13.8321042078        9.3678493755        5.0776237305
  H        12.3552083588        8.5948113961        5.7027305483
  H        13.8617556781        8.5439953497        6.6397021348
  H        14.2474900352       11.8192469584        5.8372031259
  H        11.3071922038        6.7657136824        7.1853120177
  H        12.6675673789        0.9896402725        5.3467009561
  H        12.7346115207        2.5855881397        2.6786401567
  H        13.6176954647        3.9209115718        1.9235755432
  C         8.9223464412       12.2912232153        3.7476984913
  O         8.6165996356       13.1998836001        4.4268049930
  O         9.2026718357       11.4039741960        3.0363253570
  C         0.7328909953        6.5968539991        0.7639965842
  O         1.4739160708        6.3350780743       -0.1063339568
  O         0.0024332458        6.9280843796        1.6217547833
  C         7.2639802397       13.0775905592        0.9481339485
  O         6.3020817385       13.3659421877        1.5561234049
  O         8.2488520035       12.8104542332        0.3706747868
  C         0.3128812137        5.2691576971        4.0521829421
  O        -0.6305172485        5.7515511804        4.5570166662
  O         1.2598436892        4.8130036927        3.5324382051
     140
 i =        2, E =     -1210.0311260168
  C         9.2883860892        2.2439045417        1.9705290401
  C         3.1031032565        9.1168473891        5.0156505827
  C         4.0328699748        9.0757432191        6.1710980511
  C         4.0246615271        9.7664610055        7.3859627719
  C         3.6212066173       10.7231610905        0.3981584372
  C         2.8189056522       12.0835879103        7.4980858594
  C         3.6828057582       12.9118311691        6.6013135625
  C         6.3296399903        9.7926893294        1.8855389300
  C         5.8220521723        9.3676786623        0.5674828097
  C         2.5971849978       10.4465886140        1.3115951509
  C        10.2073801486        2.2078145376        5.0135180723
  C         2.2113561514        9.1812237775        1.9817248072
  C        11.1331044564        2.1618509410        6.1698789770
  C         5.2380658370        2.2019404715        2.9484950851
  C         4.3119457957        2.1610322019        1.7905676626
  C         4.3184905615        2.8496399999        0.5748110372
  C         4.7251898155        3.8018976487        7.5599872676
  C         5.5229651674        5.1614596437        0.4671069808
  C         4.6518251592        5.9971404484        1.3528868282
  C         2.0141602500        2.8806533401        6.0797518133
  C         2.5215574071        2.4459758148        7.3952877577
  C         5.7585898090        3.5177594150        6.6558834343
  C         6.1491271811        2.2438607557        5.9909153068
  C        11.1219143949        2.8466738094        7.3872378299
  C        12.3354361783        9.1205940027        2.9485899510
  C        11.4120902187        9.0790430542        1.7886160986
  C        11.4180881052        9.7698750724        0.5741253755
  C        11.8251369993       10.7228739561        7.5610704475
  C        12.6241647553       12.0834935981        0.4655493088
  C        11.7569628336       12.9221300074        1.3491850017
  C         9.1140723280        9.8007998858        6.0777511835
  C         9.6214830769        9.3666836444        7.3944675355
  C        12.8553809389       10.4398075886        6.6533982479
  C        13.2437517630        9.1682393721        5.9861353929
  C        10.7164374301        3.8001805308        0.4016440231
  C         9.9177265646        5.1620710148        7.5032165648
  C        10.7872483610        5.9906942260        6.6119792460
  C        13.4257890983        2.8777738555        1.8836558515
  C        12.9180599819        2.4464545730        0.5685053492
  C         9.6808325785        3.5155328145        1.3023133587
  F         1.8158108366       12.7359024451        3.9763584175
  F        14.7374874603        0.0956421172        2.2574371545
  F         1.7951350627        1.2707167418        3.9000215126
  F         6.5122739950        5.8181085116        3.9742885049
  F         7.7870813328        7.0137801770        5.7103240063
  F         6.5372890873        8.1935458767        4.0499313771
  F        13.6100612215       12.7380375360        3.9745452924
  F         0.6881003409        0.0953057008        5.7089720157
  F        13.6367108647        1.2758111688        4.0485535742
  F         8.9143704886        5.8168518726        3.9758359984
  F         7.6390593597        7.0177549429        2.2579690540
  F         8.8929768622        8.1903550259        3.9010969544
  N         6.0128770422        5.6729992461        7.3077482615
  N        12.2311217466        1.3756661303        6.1769322581
  N         2.4399896710        1.5616903019        0.6750514572
  N         6.4733200703        4.6562059987        6.5281702582
  N        10.3093785143        8.3009155615        1.7787746982
  N        13.1142719817       12.5934823269        7.3067401277
  N         9.5391328063        8.4828621270        0.6740028101
  N        13.5736538467       11.5763027871        6.5278951934
  N         9.4245889420        5.6806152682        0.6505881734
  N        12.9999854259        1.5705296172        7.2812625981
  N         8.9720635546        4.6579028946        1.4276005355
  N         5.1337131695        8.2939792112        6.1764527991
  N         2.3271235755       12.6036353427        0.6462996808
  N         5.9024578164        8.4900239350        7.2801465037
  N         1.8772588438       11.5819985117        1.4264433696
  N         3.2100908962        1.3817464375        1.7802661552
 Ni         8.0265083557        7.1891212712        0.2579696734
 Ni         0.9214673005        0.2712737567        0.2550262940
 Si         7.7147238073        6.9932654674        3.9833676037
 Si         0.6161102322        0.0747691867        3.9823669526
  H        14.3523957548        2.3384392208        2.0791026346
  H         8.7204372074        2.4422402007        2.8850311261
  H        10.1739683857        1.6574388574        2.2329386706
  H         8.6625102294        1.6324032698        1.3101772326
  H         8.2680707390        4.8863270655        2.1269698420
  H         3.4739555702        9.7633022026        4.2113701296
  H         2.1195077003        9.4886462230        5.3200008246
  H         2.9743452183        8.1080731462        4.6003441819
  H         3.0696438658       13.4038532494        5.8448299657
  H         4.4371475301       12.2879791517        6.1039803078
  H        10.5769813637        2.8552294712        4.2110796654
  H         4.1878603379       13.6899904093        7.1827601932
  H         5.5722013048        7.8921418736        5.3394617932
  H         5.6269739073        9.5181989654        2.6742674745
  H         6.5099132685       10.8642050754        1.9271961229
  H         7.2553945412        9.2526509859        2.0792744064
  H         1.6206318724        9.3629554832        2.8843713638
  H         3.0857613015        8.5767484972        2.2356126119
  H         1.5828574303        8.6041988644        1.3086284350
  H         1.1718487936       11.8066259291        2.1256289155
  H         9.2197629742        2.5682041751        5.3188171316
  H         4.8797511746        2.8713415803        3.7386271653
  H         6.2299431309        2.5428154806        2.6346150277
  H         5.3472708985        1.1957607135        3.3713301574
  H         5.2729769884        6.5112410465        2.0895065637
  H         3.9213782497        5.3635377471        1.8722376442
  H         4.1104502754        6.7452752110        0.7580896750
  H         2.7735348665        0.9796100483        2.6174768788
  H         2.7127630540        2.6177648414        5.2833733307
  H         1.8179360534        3.9521104642        6.0563622401
  H         1.0982088009        2.3245083816        5.8782870303
  H        10.0779192351        1.2021137370        4.6040790277
  H         6.7342866510        2.4395932370        5.0866195553
  H         5.2628597044        1.6680405437        5.7087338386
  H         6.7669616171        1.6194106481        6.6481369231
  H         7.1678372448        4.8896545378        5.8210527164
  H        11.9749023747        9.7899076485        3.7377371974
  H        13.3272595245        9.4601504504        2.6347013653
  H        12.4469300566        8.1153189454        3.3728274908
  H        12.3762524160       13.4351461301        2.0875564641
  H        11.0329673960       12.2806838748        1.8565805516
  H        11.2088020293       13.6670570202        0.7566169999
  H        10.1759515450        6.4873451001        5.8548043768
  H         9.8715456156        7.9007124695        2.6166177722
  H         9.8130892044        9.5312063167        5.2832859814
  H        11.5350930014        5.3711701492        6.1058400572
  H         8.9068131778       10.8716068824        6.0634171834
  H         8.1975018728        9.2454740140        5.8767010583
  H        13.8320426953        9.3614114777        5.0837464849
  H        12.3623109153        8.5848546323        5.7075284064
  H        13.8631124163        8.5489930256        6.6410207493
  H        14.2683136022       11.8090666926        5.8208862493
  H        11.3038740487        6.7647497474        7.1956832039
  H        12.6696194764        0.9741553115        5.3405602973
  H        12.7251934942        2.6000563932        2.6738800497
  H        13.6076119831        3.9514281676        1.9019351370
  C         8.9110672559       12.2863185640        3.7460372053
  O         8.6093637755       13.1967399194        4.4339078699
  O         9.1989946524       11.3902749754        3.0434486627
  C         0.7242279948        6.5807287812        0.7580141545
  O         1.4747652951        6.3162169005       -0.1082311376
  O        -0.0228626012        6.8923052492        1.6158765674
  C         7.2711619151       13.0789046378        0.9527526617
  O         6.3073854232       13.3655797541        1.5684707000
  O         8.2475325336       12.8103168846        0.3527122470
  C         0.3174337151        5.2727022195        4.0517806078
  O        -0.6341869903        5.7461463088        4.5615124569
  O         1.2717904453        4.8191361001        3.5334986152
     140
 i =        3, E =     -1210.0426991361
  C         9.2852911685        2.2482514076        1.9571815179
  C         3.1082730011        9.1092112534        5.0303011086
  C         4.0262623559        9.0570518060        6.1982844514
  C         4.0431600398        9.8086946503        7.3798557172
  C         3.6198074876       10.7395136324        0.4012693638
  C         2.8119237077       12.0968633810        7.4507301708
  C         3.6760840613       12.9397990778        6.5720092879
  C         6.3441290967        9.8292709530        1.8918966881
  C         5.8429470728        9.4112318812        0.5771192688
  C         2.6041256210       10.4727261009        1.3289311801
  C        10.2153199705        2.2074013417        5.0259832834
  C         2.2140880538        9.1957411254        1.9705458511
  C        11.1269224828        2.1466307653        6.1951696559
  C         5.2300180235        2.1978913790        2.9334823916
  C         4.3122233796        2.1474221213        1.7684242634
  C         4.3053315306        2.8850381989        0.5786098344
  C         4.7366742497        3.8094522279        7.5643321362
  C         5.5346461755        5.1771417497        0.4843809276
  C         4.6626125925        6.0110021212        1.3669969470
  C         1.9951184962        2.9240194761        6.0659831788
  C         2.5100898941        2.4943614875        7.3721639770
  C         5.7681309954        3.5289166739        6.6572508525
  C         6.1526960559        2.2452503583        6.0026820336
  C        11.1384505855        2.8862410017        7.3817051943
  C        12.3280688524        9.1150871218        2.9330779426
  C        11.4125508110        9.0663688070        1.7660678588
  C        11.4066891940        9.8063374967        0.5772353478
  C        11.8351333675       10.7360119130        7.5615635667
  C        12.6423471585       12.1042213332        0.4801092703
  C        11.7703387793       12.9372671274        1.3593432318
  C         9.0940025603        9.8431110491        6.0653005537
  C         9.6101960640        9.4156924116        7.3729384350
  C        12.8648715013       10.4532091623        6.6524213874
  C        13.2462762861        9.1728038534        5.9946358994
  C        10.7057270539        3.8089564490        0.3991721958
  C         9.9139836696        5.1742717593        7.4675145291
  C        10.7854390982        6.0151813911        6.5934279953
  C        13.4394218088        2.9190915638        1.8856934060
  C        12.9353041613        2.4845888392        0.5790157872
  C         9.6721335908        3.5314371180        1.3061828010
  F         1.8087648432       12.6417862277        3.9558969732
  F        14.6454739152        0.0337801527        2.2797713628
  F         1.8088263474        1.2256909169        3.8833900256
  F         6.5103471601        5.7310934704        4.0084513891
  F         7.8605676137        6.9519389736        5.6844267315
  F         6.5111013501        8.1400502228        4.0847951525
  F        13.6067548241       12.6513950724        4.0092069240
  F         0.7625640067        0.0342218946        5.6824860835
  F        13.6106592427        1.2236778152        4.0821035786
  F         8.9082180778        5.7233907181        3.9559235236
  F         7.5468508073        6.9555359357        2.2801418750
  F         8.9072609053        8.1452227835        3.8843531390
  N         6.0610940271        5.6691823197        7.3464811221
  N        12.2175629053        1.3343477650        6.1992782125
  N         2.4558911470        1.5947565486        0.6673375737
  N         6.5377709360        4.6473927335        6.5654517296
  N        10.3327055329        8.2425994874        1.7677852235
  N        13.1705247836       12.5925053701        7.3442898192
  N         9.5560459729        8.5122438482        0.6645806051
  N        13.6391186405       11.5690266747        6.5610242256
  N         9.3972184390        5.6524873719        0.6272045709
  N        13.0027453445        1.5759082707        7.3038272186
  N         8.8940984817        4.6428796929        1.4022049929
  N         5.1195709939        8.2496339882        6.2011020396
  N         2.2993835851       12.5760501498        0.6149011898
  N         5.9074552891        8.4989345770        7.3020917660
  N         1.8106721655       11.5739117262        1.4084880994
  N         3.2326369960        1.3231118212        1.7704283594
 Ni         8.0762493768        7.2936519754        0.2751883925
 Ni         0.9758569829        0.3825961341        0.2709013207
 Si         7.7140736818        6.9333622812        3.9812361000
 Si         0.6150577598        0.0151684455        3.9798842802
  H        14.3712474868        2.3977036524        2.1059276514
  H         8.7094983282        2.4280562538        2.8697306758
  H        10.1629141931        1.6472742182        2.2156615103
  H         8.6651475879        1.6351688712        1.2937953267
  H         8.2298635510        4.8721773417        2.1424943036
  H         3.4865190873        9.7750161310        4.2419076350
  H         2.1303576139        9.5035980361        5.3276156452
  H         2.9687275756        8.1129867895        4.5909335322
  H         3.0593583096       13.4161259642        5.8095375096
  H         4.4267037558       12.2792862576        6.1112666003
  H        10.5920512860        2.8782625538        4.2423791523
  H         4.1705294549       13.7005985014        7.1863550251
  H         5.5754367140        7.8773826249        5.3539403961
  H         5.6168634431        9.5592613784        2.6615017949
  H         6.4905943425       10.9040860186        1.9243420856
  H         7.2742313133        9.3049603865        2.1071086677
  H         1.6203323520        9.3589147814        2.8749325478
  H         3.0800740769        8.5752721185        2.2217148758
  H         1.5943599444        8.6334399545        1.2810627956
  H         1.1378727567       11.7978656955        2.1408799413
  H         9.2330470656        2.5881755177        5.3252961374
  H         4.8676057143        2.8856810403        3.7085584958
  H         6.2177456966        2.5605454142        2.6309490506
  H         5.3509869386        1.2071005523        3.3835161470
  H         5.2693797456        6.5315353647        2.1087845900
  H         3.9320217876        5.3572021758        1.8633895377
  H         4.1202194278        6.7404089752        0.7475394808
  H         2.7667868010        0.9573048048        2.6159915409
  H         2.7249640206        2.6691223590        5.2938040472
  H         1.8375930572        4.0029297915        6.0791617777
  H         1.0738623585        2.3795456349        5.8532557384
  H        10.0799602462        1.2159064772        4.5911788997
  H         6.7421623807        2.4264955517        5.0987150491
  H         5.2727059869        1.6544703175        5.7286803078
  H         6.7695008978        1.6210952430        6.6616701375
  H         7.1955480779        4.8729154523        5.8195844593
  H        11.9601041853        9.8027777261        3.7055883892
  H        13.3153222427        9.4784565991        2.6319646152
  H        12.4505951035        8.1255508316        3.3856829052
  H        12.3746653671       13.4588664001        2.1025147526
  H        11.0499813675       12.2736770962        1.8419032189
  H        11.2214701912       13.6653697051        0.7433687924
  H        10.1731193487        6.5065424710        5.8351049012
  H         9.8648323358        7.8803231337        2.6142929311
  H         9.8242599942        9.5850375872        5.2943881625
  H        11.5253192947        5.3599044451        6.1178829251
  H         8.9213927835       10.9204451260        6.0889763746
  H         8.1736555982        9.2983683259        5.8509467047
  H        13.8352555790        9.3535739342        5.0903400050
  H        12.3719381347        8.5720340819        5.7251498443
  H        13.8670250870        8.5579359424        6.6514366569
  H        14.2986163424       11.7925108424        5.8168732092
  H        11.2991776056        6.7665955115        7.2120983302
  H        12.6730290878        0.9607922818        5.3545124281
  H        12.7159036088        2.6522942934        2.6603897727
  H        13.5852658471        3.9981141179        1.8791742012
  C         8.8932593744       12.2724914177        3.7498098481
  O         8.5936292532       13.1846653685        4.4399416880
  O         9.1890060162       11.3697353178        3.0577986082
  C         0.7045146335        6.5456578704        0.7441700658
  O         1.4708527742        6.2767004941       -0.1074092547
  O        -0.0629038642        6.8151696143        1.6016531993
  C         7.2839755849       13.0880452825        0.9533430621
  O         6.3291468668       13.3621131615        1.5920544384
  O         8.2410967052       12.8130884978        0.3217877139
  C         0.3290436144        5.2803213660        4.0531746153
  O        -0.6334584594        5.7314863312        4.5673937634
  O         1.2914143222        4.8361193985        3.5384804192
     140
 i =        4, E =     -1210.0596538962
  C         9.2836803354        2.2460028993        1.9581494985
  C         3.1062689795        9.1047301619        5.0372099566
  C         4.0299159592        9.0652088186        6.2021628387
  C         4.0438157943        9.8057228822        7.3873028455
  C         3.6211309409       10.7442653602        0.3983180596
  C         2.8036263550       12.0984556336        7.4582948718
  C         3.6613435787       12.9349818982        6.5738970744
  C         6.3480848906        9.8356905217        1.8959287038
  C         5.8483349640        9.4191096111        0.5785294308
  C         2.5987289008       10.4661200594        1.3112864144
  C        10.2134700324        2.2043782625        5.0316056861
  C         2.2125432441        9.1953340214        1.9706478093
  C        11.1306832093        2.1543169809        6.1976390594
  C         5.2368922788        2.1968220280        2.9326726455
  C         4.3217781231        2.1500842302        1.7641878083
  C         4.3077432967        2.8856431178        0.5767266678
  C         4.7371407728        3.8148020818        7.5657017553
  C         5.5438464583        5.1725513127        0.5002016273
  C         4.6673163661        6.0134500820        1.3665781330
  C         1.9966692599        2.9298379751        6.0758986843
  C         2.5052139843        2.4957052225        7.3853290916
  C         5.7784686507        3.5215240907        6.6758681140
  C         6.1555429453        2.2458304375        6.0027819652
  C        11.1360030227        2.8813457963        7.3884966498
  C        12.3349974668        9.1139063001        2.9320498683
  C        11.4233606617        9.0690997337        1.7609253905
  C        11.4070955650        9.8097521509        0.5756755508
  C        11.8369252724       10.7406090969        7.5622258566
  C        12.6495489811       12.0991971077        0.4950924111
  C        11.7754330160       12.9410045819        1.3587723972
  C         9.0937910496        9.8490037490        6.0747840277
  C         9.6062736060        9.4158229543        7.3838521952
  C        12.8746330805       10.4477746362        6.6676352195
  C        13.2496931809        9.1740359718        5.9940180986
  C        10.7059095583        3.8126838806        0.3973252763
  C         9.9030823558        5.1738579797        7.4728653047
  C        10.7727631644        6.0104896939        6.5991951256
  C        13.4434060503        2.9280890701        1.8882244707