     152
 i =        1, E =     -1196.8488413220
  C         1.1149776179        6.2167898720       12.1671986593
  C         1.3211115858        7.7937995463        6.9222028336
  C         2.1779466081       16.6797169835        5.6928525921
  C         2.1819297280        6.0636992719       13.2054308338
  C         2.2005165596       -0.8846316831        1.6945908506
  C         2.1981319080        9.6616202735       12.7516520284
  C         2.5546515816       13.2049433206        5.1707013421
  C         2.6016169071        8.4578112449        7.2816514080
  C         3.0310017552       -0.9835350104       -1.7980310766
  C         3.1535473977       13.4167037288        6.5204186162
  C         3.2081034685        0.2034682382        1.5892003995
  C         3.3930832505        6.7241617934       13.3366146676
  C         3.3711475444        7.3530983080        3.8887383444
  C         3.4261086768        9.0506472293       12.1733799998
  C         3.6511747562       16.5990320625        5.6484719355
  C         3.9116394004        8.1277526604        6.9888597555
  C         3.9514689921        7.7591950564       12.4441095479
  C         3.9550709668       14.4253123912        7.0356110530
  C         4.0104701485        6.1384985953       14.4790380327
  C         4.1371291325        6.5718324361        4.9046358228
  C         4.2031513275       14.0540093659        8.3926563884
  C         4.3284583486       -1.3436979276       -1.1812806304
  C         4.3863707535        6.9426427659        6.2620104479
  C         4.3883134425        0.2768085390        0.8552894906
  C         4.4292154260       15.6108811906        6.3087308549
  C         4.6899192976        9.1160840789        7.6478037244
  C         4.9149769562        1.5675528880        1.1255421721
  C         4.9672482521       14.8380127147        9.4073481428
  C         4.9443795897       -0.7583639607       -0.0390762501
  C         5.1290083571        7.6868417278       11.7059140208
  C         5.1877454595        5.9329243921        6.7753409074
  C         5.3075120747        6.5092748120       15.0910312233
  C         5.7416765524       15.9323629789        6.0064125954
  C         5.7835832513        5.7244393525        8.1277706461
  C         6.1381409526        2.1805062071        0.5394507979
  C         6.1403874391        6.6010531984       11.6009440257
  C         6.1572387547       -1.4175103700        0.0844952997
  C         6.1625667772        9.1991000785        7.6072060928
  C         7.0295832392       15.2866543918        6.3783698460
  C         7.2227157337       -1.2690957097        1.1237516239
  F         0.0299076336        2.6148015832        4.4707364497
  F         0.1543003311        4.9452580564        4.5406807925
  F         0.1989383948        2.5785340086        2.1867224606
  F         0.2076273073        4.9719887982        2.1090029713
  F         1.4124498724       11.2348854349        9.9500629384
  F         1.9143722617        3.7595125956        3.3071219918
  F         6.4351021607       11.2429527258        9.9916603338
  F         6.9361078545        3.7522606445        3.3520323347
  F         8.3137141391       10.0767831056        8.8370493359
  F         8.1923232618       12.4546383479        8.7734343435
  F         8.1458951609       10.0758391272       11.1194442059
  F         8.1378348075       12.4465438470       11.1870461340
  N         2.0874613390        5.1669341862       14.2140461517
  N         2.6344669014        9.6006957803        7.9946387480
  N         2.9491420788       12.5283185910        7.5138519301
  N         3.0925186255        1.3709756161        2.2568328549
  N         3.1965887085        5.2119877352       14.9991096246
  N         3.5902175915       12.8976090960        8.6536665772
  N         3.9034627083        9.9736581935        8.3268731185
  N         4.1162271288        2.2223243940        1.9831925303
  N         4.2194171536        9.7014588958       11.3086937064
  N         4.4345079729       17.4623476193        4.9719671395
  N         4.7522787333        5.4165281750        4.6430793758
  N         5.1425828745       -2.2702509858       -1.7005037294
  N         5.2475518813        8.8554997038       11.0413143672
  N         5.3932748247        5.0454163432        5.7816304000
  N         5.7032235203       17.0843043945        5.3054403786
  N         6.2534709768       -2.3147637905       -0.9216861631
 Ni         4.0143019254       11.3454800458       10.0027924308
 Ni         4.3999239703        3.8555768450        3.2874926724
 Si         0.1556846783        3.8194055061        3.3094570809
 Si         8.1921080712       11.3003223642        9.9757665691
  H         0.3790887198        5.4125773319       12.2764028050
  H         0.7108498635        8.4757388653        6.3121388843
  H         0.6019862408        7.1835533701       12.2232013961
  H         0.7475634554        7.6267363464        7.8413509131
  H         1.6110851345       -0.9384127212        0.7723311876
  H         1.2457748880        4.7000227918       14.5627972403
  H         1.5128017735       13.5558110462        5.1614910170
  H         1.5649136011        6.1318722421       11.1681046392
  H         1.5100867297        6.8417286838        6.4149632582
  H         1.3499586792        9.5299095521       12.0726294836
  H         1.9726034087        9.1958294166       13.7197757174
  H         1.7195556114       16.2351660213        6.5848465279
  H         1.7314868483       16.1824064577        4.8265688908
  H         1.8723764014        9.9975846573        8.5564340113
  H         1.8818129405       17.7216054613        5.6052120838
  H         1.5173448469       -0.6760576790        2.5252578934
  H         2.2090367237       -1.4943196620       -1.2931200577
  H         2.2484976421        1.7567707371        2.6869097060
  H         2.2174760931       11.8302370592        7.5794611081
  H         2.3472720910       10.7395851396       12.8783277926
  H         2.6725722094       -1.8620464437        1.8606130895
  H         2.6084793582        6.7102254467        3.4347155100
  H         3.0976446841       13.7795319287        4.4144459377
  H         2.9955464483       -1.3221319050       -2.8360799831
  H         2.5638238534       12.1489329137        4.8704276123
  H         2.8977522132        8.2257546749        4.3506209291
  H         2.8730863512        0.1008307624       -1.7319828836
  H         4.0422619529        7.7054667024        3.0943274361
  H         4.2919266674       15.1824581516       10.2016018147
  H         5.4811524091        7.5913210596       15.0369254777
  H         5.4524862641       15.7024691276        8.9418630907
  H         5.7715899760        4.6651519920        8.4191244086
  H         5.3453462851        6.1493817632       16.1219819758
  H         5.2411713396        6.2973005174        8.8846695002
  H         5.7322531833       14.1962521195        9.8592003844
  H         5.6653985537        5.6238016047       11.4408025627
  H         5.9968872672        3.2603867458        0.4196809574
  H         6.1212937855        4.3436399109        5.7122178228
  H         6.0907407508        9.2434257062       10.6115723761
  H         6.1320212020        5.9927157821       14.5946087086
  H         6.8246925240        6.8108106729       10.7705383561
  H         6.4700838174       10.2388340157        7.6755839545
  H         6.4627978895       17.4753807905        4.7363910876
  H         6.6090159182        8.6970040621        8.4704932303
  H         6.6201249395        8.7590013162        6.7121107211
  H         6.3793305363        1.7121012324       -0.4238155656
  H         6.9919056852        2.0523252830        1.2126652549
  H         6.7890498278       -1.3414789607        2.1314835042
  H         6.8381502124       14.3371327153        6.8874262997
  H         6.8246066405        6.0799902528        8.1312392870
  H         7.0870463503       -2.8013456918       -1.2649539933
  H         6.7321981289        6.5401917150       12.5208706008
  H         7.5854728764       15.1106789563        5.4479384162
  H         7.7360991251       -0.3023113571        1.0765643352
  H         7.6363924125       15.9286840606        7.0281738681
  H         7.9639484360       -2.0685357459        1.0233135455
  O         0.5586804799        2.6003935312       12.7600028230
  H         1.0953779090        2.8112205092       11.9641395331
  H         1.2277940432        2.7757987817       13.4544903712
  O         7.2819017593       11.8114355988        5.2686565468
  H         7.5233296726       11.5652456314        4.3469932316
  H         8.1583474104       12.1200120203        5.5806842797
  O         4.9831062725       10.9287939980        2.4514251175
  H         5.2430552672       11.8724778483        2.3990455464
  H         5.5938279891       10.6199332746        3.1534021999
  O         2.5855460372        3.7904215959        9.9993223542
  H         3.3858534347        3.2308738605        9.9142810660
  H         2.3223179148        3.9054325438        9.0566230478
  O         0.8984938047       10.4383405798        2.4899165129
  H         1.2373015124       10.3958769353        1.5700257063
  H         0.8206342527        9.4813943821        2.7087829864
  O         0.5595452211        4.1766394332        7.7431501107
  H         0.2052891199        3.7374586158        6.9371186704
  H        -0.2515072304        4.5515951662        8.1416898333
  O         0.2396524642        1.2472809665        9.6556859618
  H         0.5886245932        2.1504106444        9.8143323328
  H         0.4183703390        0.8161883563       10.5177301260
  O         8.3449609459        7.8229349388        3.9843985872
  H         7.4066926391        7.6376183386        4.2156474017
  H         8.7219493460        7.7413453262        4.8899260677
     152
 i =        2, E =     -1196.8776375592
  C         1.1057318878        6.2103785815       12.1628515973
  C         1.3074516166        7.7872152073        6.9347328985
  C         2.1813796934       16.6877200023        5.6885176892
  C         2.1577551441        6.0708604611       13.2137201984
  C         2.1915361988       -0.8807797818        1.6932548740
  C         2.1929784872        9.6695722505       12.7455064132
  C         2.5447101410       13.2127520158        5.1676063851
  C         2.5761217344        8.4833652191        7.2584423875
  C         3.0359644310       -0.9909188315       -1.7976421573
  C         3.1271734205       13.4241966651        6.5227670625
  C         3.2016214679        0.2120384723        1.5949712850
  C         3.4044708125        6.7085131294       13.3250711416
  C         3.3588238028        7.3395751761        3.8869105156
  C         3.4205741912        9.0706321636       12.1560990632
  C         3.6526668042       16.5922983145        5.6262848661
  C         3.9011964037        8.1275762091        6.9946348662
  C         3.9497270086        7.7730561593       12.4506438328
  C         3.9419893253       14.4424140992        7.0390632616
  C         3.9979797296        6.1408328354       14.4960337946
  C         4.1316445661        6.5681902465        4.9017551731
  C         4.2122176552       14.0571803726        8.3891315442
  C         4.3422613595       -1.3549249236       -1.2011753680
  C         4.3966994294        6.9589115321        6.2542502588
  C         4.3898010252        0.2847204640        0.8472710065
  C         4.4429053905       15.6079590028        6.2958173859
  C         4.6923824590        9.1065394124        7.6708587422
  C         4.9204161266        1.5830204512        1.1308210252
  C         4.9806934197       14.8245630491        9.4098022125
  C         4.9337171961       -0.7764702405       -0.0330061408
  C         5.1398541303        7.6982400348       11.7076646389
  C         5.2120182275        5.9423323554        6.7733265097
  C         5.3055351435        6.5037028113       15.0915943593
  C         5.7722547875       15.9677682129        6.0493156924
  C         5.7918798742        5.7343146498        8.1309042266
  C         6.1445753830        2.1892006187        0.5449589619
  C         6.1501827831        6.6038104439       11.6028786249
  C         6.1819887152       -1.4124501149        0.0823311782
  C         6.1618778297        9.2085025512        7.6129674852
  C         7.0443975025       15.2754546213        6.3748981585
  C         7.2359983476       -1.2734702989        1.1316448588
  F        -0.0291641692        2.5835211664        4.5162479929
  F         0.1592656888        4.9596151410        4.5476656039
  F         0.2403447112        2.5653154918        2.1643836354
  F         0.2543371278        4.9508460368        2.1084349129
  F         1.4481532156       11.2777769998        9.9740460512
  F         1.9155731946        3.7662730304        3.3157739793
  F         6.4354596662       11.2469355551        9.9790111250
  F         6.8999932313        3.8007402337        3.3213408892
  F         8.3838895892       10.0583273738        8.8011003354
  F         8.1873998745       12.4584930449        8.7693797661
  F         8.1077461700       10.0572896747       11.1507835048
  F         8.0980877661       12.4373159382       11.1991851611
  N         2.0875376842        5.1497050593       14.2192633656
  N         2.6090747951        9.5749132487        8.0691889152
  N         2.9401823073       12.5329276332        7.5231731168
  N         3.0843197666        1.3811512135        2.2805311326
  N         3.1957207619        5.1891579156       15.0237077424
  N         3.6147089719       12.8749055139        8.6616187921
  N         3.8935626631        9.9616115161        8.3646960083
  N         4.1210070167        2.2432126221        2.0157315789
  N         4.2181518733        9.7294586963       11.2699837456
  N         4.4518122457       17.4498685271        4.9305614277
  N         4.7356822344        5.3871384903        4.6296408233
  N         5.1518092818       -2.2991661161       -1.7315488098
  N         5.2537714984        8.8658321909       11.0177031294
  N         5.4081104815        5.0537834304        5.7712216244
  N         5.7360653319       17.0587730563        5.2339558550
  N         6.2569257266       -2.3239802537       -0.9278896176
 Ni         3.9782503340       11.3947177495        9.9932095280
 Ni         4.3206821283        3.9090511320        3.2837618794
 Si         0.1392504827        3.7951424668        3.3286758160
 Si         8.2117323594       11.2807285232        9.9712293454
  H         0.3679849376        5.4092104216       12.2730016428
  H         0.7122879488        8.4849403856        6.3274524084
  H         0.6088800185        7.1862630342       12.2321484180
  H         0.7250802656        7.6085577044        7.8432292747
  H         1.6061394771       -0.9447265143        0.7702810162
  H         1.2353523080        4.7077788049       14.5789774780
  H         1.5040191743       13.5643219462        5.1510557448
  H         1.5683997222        6.1315051099       11.1693561183
  H         1.5024681810        6.8403007226        6.4192487569
  H         1.3392070347        9.5351729375       12.0753146166
  H         1.9815239885        9.2003913021       13.7165490300
  H         1.7507102811       16.2336297216        6.5912715275
  H         1.7288443315       16.1777190220        4.8317003713
  H         1.8272954891        9.9961535050        8.5864095024
  H         1.8758784508       17.7282892298        5.6083947855
  H         1.5050649935       -0.6891827403        2.5243979077
  H         2.2038642923       -1.4855921611       -1.2927267743
  H         2.2359760591        1.7712898309        2.7006133402
  H         2.2172277533       11.8235752987        7.5821342864
  H         2.3422278515       10.7445712207       12.8857625570
  H         2.6701927254       -1.8557795887        1.8581289995
  H         2.5882624743        6.7167620651        3.4235669359
  H         3.1013212502       13.7843245289        4.4187591747
  H         2.9872562915       -1.3120721058       -2.8399209513
  H         2.5670285767       12.1552411176        4.8707067111
  H         2.8983769368        8.2186538332        4.3504506478
  H         2.8883987556        0.0939485194       -1.7165260487
  H         4.0308444907        7.7051456856        3.0988692677
  H         4.3003678298       15.1803092770       10.1968506169
  H         5.4751939602        7.5863048777       15.0334571766
  H         5.4574183907       15.6918366706        8.9415733325
  H         5.7676681913        4.6719737514        8.4164477523
  H         5.3511412025        6.1525498732       16.1241474998
  H         5.2363945416        6.3012962473        8.8834155779
  H         5.7531384523       14.2040423514        9.8723806375
  H         5.6642975524        5.6302658124       11.4454017352
  H         6.0033986608        3.2671209948        0.4138537975
  H         6.1186893079        4.3317798011        5.7099180487
  H         6.1023352795        9.2593871449       10.6033095411
  H         6.1388410187        6.0035599435       14.5938372078
  H         6.8369073160        6.7999371802       10.7717637968
  H         6.4825029318       10.2465082361        7.6645883945
  H         6.5111543294       17.4689739257        4.7038522985
  H         6.6104451758        8.6932538206        8.4687355535
  H         6.5881053779        8.7588157262        6.7064778758
  H         6.3777022475        1.7170421111       -0.4190871328
  H         7.0067899123        2.0594231047        1.2065780278
  H         6.7899635017       -1.3333992563        2.1357220828
  H         6.8476826532       14.3316553822        6.8902459453
  H         6.8303566525        6.0937944097        8.1432336095
  H         7.0891644168       -2.8101663959       -1.2727074842
  H         6.7387492663        6.5308179532       12.5232179180
  H         7.6115422694       15.0968483954        5.4544071386
  H         7.7321561730       -0.2970208432        1.0670406285
  H         7.6383648808       15.9177033095        7.0363449072
  H         7.9762459350       -2.0731404948        1.0301047315
  O         0.5847675663        2.6022857156       12.7348264322
  H         1.1085403261        2.8270429460       11.9554445218
  H         1.2067009503        2.7559727669       13.4554555702
  O         7.2957571712       11.8155112169        5.2392967372
  H         7.5416500633       11.5558379831        4.3408348208
  H         8.1356901778       12.1144327023        5.6067734412
  O         4.9921880050       10.9377767159        2.4647742137
  H         5.2387517795       11.8654745838        2.3883430257
  H         5.5836265360       10.6160923121        3.1536243765
  O         2.5896467869        3.7813016932        9.9910305119
  H         3.3762290402        3.2290950875        9.9148024355
  H         2.2973877359        3.8993551491        9.0709350408
  O         0.8988579643       10.4256953500        2.4822321658
  H         1.2366589312       10.3995331760        1.5790574309
  H         0.7936522432        9.4912684172        2.7227073780
  O         0.5488117810        4.1628193950        7.7459879531
  H         0.2339953669        3.7561847328        6.9216967779
  H        -0.2411202415        4.5426195060        8.1407810620
  O         0.2325072997        1.2668971560        9.6557903692
  H         0.6014527040        2.1481732655        9.7982629488
  H         0.3934928252        0.8189311039       10.4944798205
  O         8.3226859646        7.8803112618        3.9936899854
  H         7.4050807433        7.6298723936        4.1796863532
  H         8.7435263170        7.7181189128        4.8551387483
     152
 i =        3, E =     -1196.8890859531
  C         1.0990150536        6.2054412033       12.1680040032
  C         1.2942953184        7.8000402527        6.9370267837
  C         2.1875915947       16.6965201632        5.6717618673
  C         2.1627699661        6.0587537125       13.2007051848
  C         2.1821630136       -0.8756448557        1.6959567535
  C         2.1917904893        9.6799958633       12.7366890393
  C         2.5329661297       13.2224183803        5.1714681830
  C         2.5699821025        8.4558863816        7.3021356014
  C         3.0375633187       -0.9925821463       -1.8035677946
  C         3.1138769731       13.4364650731        6.5270276691
  C         3.1977668508        0.2118487716        1.5965074640
  C         3.3945113832        6.7297083854       13.3437247876
  C         3.3474435784        7.3334439001        3.8837892893
  C         3.4148444985        9.0681390665       12.1559033435
  C         3.6568714998       16.5803607034        5.6088563923
  C         3.9001585934        8.1373679089        6.9861748175
  C         3.9530987559        7.7713404235       12.4472595038
  C         3.9488421945       14.4470806226        7.0421317367
  C         4.0084286782        6.1277071349       14.4873288448
  C         4.1179011855        6.5720154099        4.9044600705
  C         4.2273425420       14.0549037574        8.3854061658
  C         4.3336380803       -1.3652345809       -1.1933858486
  C         4.3925652230        6.9642668997        6.2517235922
  C         4.3881820470        0.2834515857        0.8463004636
  C         4.4498113106       15.6223791711        6.3156876643
  C         4.6920048978        9.1032188762        7.6826311055
  C         4.9263179062        1.5812313734        1.1322055228
  C         4.9929703759       14.8175705699        9.4090602654
  C         4.9435387665       -0.7658802920       -0.0448822667
  C         5.1463391960        7.7057895752       11.7035465529
  C         5.2278963733        5.9523804737        6.7627380506
  C         5.3051828744        6.5003630303       15.0995998684
  C         5.7824582822       15.9445323751        6.0049527649
  C         5.8009528909        5.7452545783        8.1237769987
  C         6.1470102365        2.1976419117        0.5525411823
  C         6.1583609023        6.6117806826       11.6036898953
  C         6.1818447054       -1.4291785997        0.0882264993
  C         6.1606836117        9.2175717701        7.6267596784
  C         7.0544894293       15.2829515750        6.3875363709
  C         7.2419544476       -1.2760761812        1.1269321297
  F        -0.0626583520        2.5900142795        4.5457540299
  F         0.1600753021        4.9558954703        4.5584314446
  F         0.2376756210        2.5362988777        2.1677732281
  F         0.2580069320        4.9521849748        2.0973553478
  F         1.4563367532       11.3130482740       10.0286965126
  F         1.9275127072        3.7555684773        3.3701939592
  F         6.4255290478       11.2334435955        9.9308829592
  F         6.8935897794        3.8331261361        3.2736687916
  F         8.4231491874       10.0551944154        8.7860025621
  F         8.1941200322       12.4494819442        8.7576673405
  F         8.1088282114       10.0369612936       11.1617239332
  F         8.0923257692       12.4413285250       11.2117345324
  N         2.0795855793        5.1510298749       14.2210866403
  N         2.5963021134        9.5529384988        8.1056199480
  N         2.9469854983       12.5372700602        7.5266530670
  N         3.0815222499        1.3765106295        2.2933537752
  N         3.1864804424        5.1934783513       15.0370766911
  N         3.6203165268       12.8719296898        8.6719259835
  N         3.8848393333        9.9541174856        8.3735018253
  N         4.1096454327        2.2480068528        2.0047713227
  N         4.2181400257        9.7323318099       11.2702544410
  N         4.4565390948       17.4414119763        4.9153305650
  N         4.7178621151        5.3826537905        4.6154009459
  N         5.1540235282       -2.2990011722       -1.7459633891
  N         5.2561567333        8.8689904233       11.0000936761
  N         5.3992158194        5.0552723190        5.7595626295
  N         5.7478320809       17.0443592528        5.1987382796
  N         6.2637560564       -2.3275803267       -0.9374724795
 Ni         4.0407258911       11.3880999197        9.9560598907
 Ni         4.2612409237        3.8964950199        3.2759341761
 Si         0.1404971478        3.7906554401        3.3253659715
 Si         8.2103623255       11.2766486845        9.9764935484
  H         0.3544769316        5.4097263055       12.2672485527
  H         0.6869069705        8.4761390654        6.3252569041
  H         0.6095527917        7.1854639484       12.2343677195
  H         0.7162477577        7.5954409361        7.8432692788
  H         1.6041766207       -0.9472819783        0.7693519456
  H         1.2261487550        4.7171933511       14.5920192136
  H         1.4917153475       13.5701688330        5.1334972386
  H         1.5692754104        6.1322593980       11.1776266643
  H         1.4914332983        6.8530576993        6.4210594854
  H         1.3267305274        9.5454149873       12.0821899641
  H         1.9917024201        9.2034506364       13.7066537124
  H         1.7910600149       16.2384606211        6.5905065426
  H         1.7199584371       16.1714734602        4.8332679557
  H         1.8018094423        9.9777006087        8.6099037290
  H         1.8737938580       17.7360306562        5.6126721588
  H         1.4899368790       -0.6977884813        2.5242899809
  H         2.2054595178       -1.4831332372       -1.2936081327
  H         2.2359030625        1.7827182953        2.7075525030
  H         2.2272392544       11.8223315697        7.5846262286
  H         2.3323619451       10.7541652151       12.8892380809
  H         2.6721989806       -1.8464057381        1.8531830977
  H         2.5710221221        6.7214441959        3.4161740156
  H         3.1036550164       13.7917096709        4.4297429638
  H         2.9771177626       -1.3023898423       -2.8481470456
  H         2.5655725349       12.1641544359        4.8744309628
  H         2.8916595661        8.2103663670        4.3544855749
  H         2.9014919668        0.0922375877       -1.7043877787
  H         4.0214380785        7.6999659362        3.0981631292
  H         4.3106645811       15.1755990471       10.1936531011
  H         5.4667943454        7.5839924262       15.0316121267
  H         5.4673465833       15.6851604781        8.9403289787
  H         5.7707089434        4.6829505112        8.4116387549
  H         5.3583434067        6.1557218718       16.1326371373
  H         5.2319946482        6.3072070209        8.8725333512
  H         5.7678596072       14.2072349146        9.8804663560
  H         5.6603247296        5.6430468885       11.4503147242
  H         6.0130742123        3.2749721254        0.4099571781
  H         6.1052028737        4.3253109101        5.7099652397
  H         6.1058021556        9.2769447610       10.5976397803
  H         6.1379252664        6.0085028068       14.5917819961
  H         6.8493284820        6.7913860712       10.7737300690
  H         6.4880382433       10.2549366567        7.6598624741
  H         6.5372061492       17.4493012690        4.6779725528
  H         6.6217890004        8.6921582530        8.4690380023
  H         6.5494229008        8.7581584959        6.7060566261
  H         6.3722107726        1.7224362946       -0.4119427360
  H         7.0184109603        2.0698297638        1.2015442187
  H         6.7915347981       -1.3266527818        2.1303063623
  H         6.8539315278       14.3322986046        6.8895836805
  H         6.8389355623        6.1033940186        8.1631548905
  H         7.0974706068       -2.8169012446       -1.2781366363
  H         6.7430525120        6.5256955335       12.5248296956
  H         7.6246498788       15.0907307259        5.4712281324
  H         7.7350912889       -0.2977338138        1.0607512044
  H         7.6679435923       15.9008058969        7.0512917648
  H         7.9890604453       -2.0706613325        1.0397833140
  O         0.6053732771        2.6000647785       12.7089241684
  H         1.1282953773        2.8473450462       11.9367965740
  H         1.1872635668        2.7355533186       13.4690567271
  O         7.3009153701       11.8234574897        5.2081533109
  H         7.5659019866       11.5400597129        4.3229918607
  H         8.1180927913       12.1108585724        5.6418316768
  O         4.9949071776       10.9429369452        2.4754739740
  H         5.2344833979       11.8697877348        2.3716129312
  H         5.5783938586       10.6045828400        3.1627152422
  O         2.5905049429        3.7747141418        9.9886574022
  H         3.3754991541        3.2204898114        9.9174847644
  H         2.2658737201        3.8971178316        9.0801520904
  O         0.8991121630       10.4211331306        2.4805939039
  H         1.2397247101       10.4027423057        1.5790544603
  H         0.7627838306        9.4957022030        2.7399101931
  O         0.5451479614        4.1448185804        7.7531644107
  H         0.2637562782        3.7724386099        6.8982119546
  H        -0.2394719882        4.5391663109        8.1446592551
  O         0.2216486143        1.2858960607        9.6505170180
  H         0.6185015434        2.1575354749        9.7778107846
  H         0.3671012498        0.8109839263       10.4777886610
  O         8.3029655930        7.9443888131        4.0011102336
  H         7.3952400993        7.6161754397        4.1423284856
  H         8.7721796393        7.6913563001        4.8267669727
     152
 i =        4, E =     -1196.8993801965
  C         1.1004974298        6.2006193349       12.1725693944
  C         1.2835376048        7.8039491367        6.9472395559