320
	Energy:       3.9788013
C          8.25717       28.17182       21.58129
C          7.89387       29.52782       21.58129
C          5.54517       30.88382       21.58129
C          4.18917       30.52052       21.58129
C          2.83317       28.17182       21.58129
C          3.19647       26.81582       21.58129
C          5.54517       25.45982       21.58129
C          6.90117       25.82312       21.58129
C          7.46287       30.08952       22.81109
C          6.24707       30.79142       22.81109
C          3.62747       30.08952       22.81109
C          2.92557       28.87372       22.81109
C          3.62747       26.25412       22.81109
C          4.84327       25.55222       22.81109
C          7.46287       26.25412       22.81109
C          8.16477       27.46992       22.81109
C          5.54517       30.88382       24.04079
C          4.18917       30.52052       24.04079
C          2.83317       28.17182       24.04079
C          3.19647       26.81582       24.04079
C          5.54517       25.45982       24.04079
C          6.90117       25.82312       24.04079
C          8.25717       28.17182       24.04079
C          7.89387       29.52782       24.04079
C          3.62747       30.08952       25.27059
C          2.92557       28.87372       25.27059
C          3.62747       26.25412       25.27059
C          4.84327       25.55222       25.27059
C          7.46287       26.25412       25.27059
C          8.16477       27.46992       25.27059
C          7.46287       30.08952       25.27059
C          6.24707       30.79142       25.27059
C          2.83317       28.17182       26.50029
C          3.19647       26.81582       26.50029
C          5.54517       25.45982       26.50029
C          6.90117       25.82312       26.50029
C          8.25717       28.17182       26.50029
C          7.89387       29.52782       26.50029
C          5.54517       30.88382       26.50029
C          4.18917       30.52052       26.50029
C          3.62747       26.25412       27.73009
C          4.84327       25.55222       27.73009
C          7.46287       26.25412       27.73009
C          8.16477       27.46992       27.73009
C          7.46287       30.08952       27.73009
C          6.24707       30.79142       27.73009
C          3.62747       30.08952       27.73009
C          2.92557       28.87372       27.73009
C          5.54517       25.45982       28.95979
C          6.90117       25.82312       28.95979
C          8.25717       28.17182       28.95979
C          7.89387       29.52782       28.95979
C          5.54517       30.88382       28.95979
C          4.18917       30.52052       28.95979
C          2.83317       28.17182       28.95979
C          3.19647       26.81582       28.95979
C          7.46287       26.25412       30.18959
C          8.16477       27.46992       30.18959
C          7.46287       30.08952       30.18959
C          6.24707       30.79142       30.18959
C          3.62747       30.08952       30.18959
C          2.92557       28.87372       30.18959
C          3.62747       26.25412       30.18959
C          4.84327       25.55222       30.18959
C          8.25717       28.17182       31.41929
C          7.89387       29.52782       31.41929
C          5.54517       30.88382       31.41929
C          4.18917       30.52052       31.41929
C          2.83317       28.17182       31.41929
C          3.19647       26.81582       31.41929
C          5.54517       25.45982       31.41929
C          6.90117       25.82312       31.41929
C          7.46287       30.08952       32.64909
C          6.24707       30.79142       32.64909
C          3.62747       30.08952       32.64909
C          2.92557       28.87372       32.64909
C          3.62747       26.25412       32.64909
C          4.84327       25.55222       32.64909
C          7.46287       26.25412       32.64909
C          8.16477       27.46992       32.64909
C          5.54517       30.88382       33.87889
C          4.18917       30.52052       33.87889
C          2.83317       28.17182       33.87889
C          3.19647       26.81582       33.87889
C          5.54517       25.45982       33.87889
C          6.90117       25.82312       33.87889
C          8.25717       28.17182       33.87889
C          7.89387       29.52782       33.87889
C          3.62747       30.08952       35.10859
C          2.92557       28.87372       35.10859
C          3.62747       26.25412       35.10859
C          4.84327       25.55222       35.10859
C          7.46287       26.25412       35.10859
C          8.16477       27.46992       35.10859
C          7.46287       30.08952       35.10859
C          6.24707       30.79142       35.10859
C          2.83317       28.17182       36.33839
C          3.19647       26.81582       36.33839
C          5.54517       25.45982       36.33839
C          6.90117       25.82312       36.33839
C          8.25717       28.17182       36.33839
C          7.89387       29.52782       36.33839
C          5.54517       30.88382       36.33839
C          4.18917       30.52052       36.33839
C          3.62747       26.25412       37.56809
C          4.84327       25.55222       37.56809
C          7.46287       26.25412       37.56809
C          8.16477       27.46992       37.56809
C          7.46287       30.08952       37.56809
C          6.24707       30.79142       37.56809
C          3.62747       30.08952       37.56809
C          2.92557       28.87372       37.56809
C          5.54517       25.45982       38.79789
C          6.90117       25.82312       38.79789
C          8.25717       28.17182       38.79789
C          7.89387       29.52782       38.79789
C          5.54517       30.88382       38.79789
C          4.18917       30.52052       38.79789
C          2.83317       28.17182       38.79789
C          3.19647       26.81582       38.79789
C          7.46287       26.25412       40.02759
C          8.16477       27.46992       40.02759
C          7.46287       30.08952       40.02759
C          6.24707       30.79142       40.02759
C          3.62747       30.08952       40.02759
C          2.92557       28.87372       40.02759
C          3.62747       26.25412       40.02759
C          4.84327       25.55222       40.02759
C          8.25717       28.17182       41.25739
C          7.89387       29.52782       41.25739
C          5.54517       30.88382       41.25739
C          4.18917       30.52052       41.25739
C          2.83317       28.17182       41.25739
C          3.19647       26.81582       41.25739
C          5.54517       25.45982       41.25739
C          6.90117       25.82312       41.25739
C          7.46287       30.08952       42.48719
C          6.24707       30.79142       42.48719
C          3.62747       30.08952       42.48719
C          2.92557       28.87372       42.48719
C          3.62747       26.25412       42.48719
C          4.84327       25.55222       42.48719
C          7.46287       26.25412       42.48719
C          8.16477       27.46992       42.48719
C          5.54517       30.88382       43.71689
C          4.18917       30.52052       43.71689
C          2.83317       28.17182       43.71689
C          3.19647       26.81582       43.71689
C          5.54517       25.45982       43.71689
C          6.90117       25.82312       43.71689
C          8.25717       28.17182       43.71689
C          7.89387       29.52782       43.71689
C          3.62747       30.08952       44.94669
C          2.92557       28.87372       44.94669
C          3.62747       26.25412       44.94669
C          4.84327       25.55222       44.94669
C          7.46287       26.25412       44.94669
C          8.16477       27.46992       44.94669
C          7.46287       30.08952       44.94669
C          6.24707       30.79142       44.94669
C          6.33735       18.51062       37.50782
C          7.03925       18.41822       38.73762
C          6.33735       18.51062       39.96732
C          7.03925       18.41822       41.19712
C          6.33735       18.51062       42.42692
C          7.03925       18.41822       43.65662
C          6.33735       18.51062       44.88642
C          5.12155       19.21252       44.88642
C          4.69055       19.77422       43.65662
C          4.32725       21.13022       43.65662
C          4.41965       21.83212       44.88642
C          5.12155       23.04792       44.88642
C          5.68325       23.47892       43.65662
C          7.03925       23.84222       43.65662
C          7.74115       23.74982       44.88642
C          8.95695       23.04792       44.88642
C          9.38795       22.48622       43.65662
C          9.75125       21.13022       43.65662
C          9.65885       20.42832       44.88642
C          8.95695       19.21252       44.88642
C          9.65885       20.42832       42.42692
C          8.95695       19.21252       42.42692
C          9.75125       21.13022       41.19712
C          9.38795       22.48622       41.19712
C          8.95695       23.04792       39.96732
C          7.74115       23.74982       39.96732
C          7.03925       23.84222       41.19712
C          5.68325       23.47892       41.19712
C          5.12155       23.04792       39.96732
C          4.41965       21.83212       39.96732
C          4.32725       21.13022       41.19712
C          4.69055       19.77422       41.19712
C          4.32725       21.13022       38.73762
C          4.69055       19.77422       38.73762
C          4.41965       21.83212       37.50782
C          5.12155       23.04792       37.50782
C          5.68325       23.47892       36.27812
C          7.03925       23.84222       36.27812
C          7.74115       23.74982       37.50782
C          8.95695       23.04792       37.50782
C          9.38795       22.48622       36.27812
C          9.75125       21.13022       36.27812
C          9.65885       20.42832       37.50782
C          9.75125       21.13022       38.73762
C          8.95695       19.21252       37.50782
C          8.39525       18.78152       36.27812
C          8.95695       19.21252       35.04832
C          8.39525       18.78152       33.81862
C          7.03925       18.41822       33.81862
C          6.33735       18.51062       35.04832
C          5.12155       19.21252       35.04832
C          4.69055       19.77422       36.27812
C          4.69055       19.77422       33.81862
C          4.32725       21.13022       33.81862
C          4.41965       21.83212       35.04832
C          4.41965       21.83212       32.58882
C          5.12155       23.04792       32.58882
C          5.68325       23.47892       33.81862
C          7.03925       23.84222       33.81862
C          7.74115       23.74982       32.58882
C          8.95695       23.04792       32.58882
C          9.38795       22.48622       33.81862
C          9.75125       21.13022       33.81862
C          9.65885       20.42832       32.58882
C          9.75125       21.13022       31.35902
C          9.65885       20.42832       30.12932
C          8.95695       19.21252       30.12932
C          8.39525       18.78152       31.35902
C          7.03925       18.41822       31.35902
C          6.33735       18.51062       30.12932
C          5.12155       19.21252       30.12932
C          4.69055       19.77422       31.35902
C          4.69055       19.77422       28.89952
C          4.32725       21.13022       28.89952
C          4.41965       21.83212       30.12932
C          5.12155       23.04792       30.12932
C          5.68325       23.47892       28.89952
C          7.03925       23.84222       28.89952
C          7.74115       23.74982       30.12932
C          8.95695       23.04792       30.12932
C          9.38795       22.48622       28.89952
C          8.95695       23.04792       27.66982
C          9.38795       22.48622       26.44002
C          9.75125       21.13022       26.44002
C          9.65885       20.42832       27.66982
C          8.95695       19.21252       27.66982
C          8.39525       18.78152       26.44002
C          7.03925       18.41822       26.44002
C          6.33735       18.51062       27.66982
C          6.33735       18.51062       25.21032
C          5.12155       19.21252       25.21032
C          4.69055       19.77422       26.44002
C          4.32725       21.13022       26.44002
C          4.41965       21.83212       25.21032
C          5.12155       23.04792       25.21032
C          5.68325       23.47892       26.44002
C          7.03925       23.84222       26.44002
C          7.74115       23.74982       25.21032
C          7.03925       23.84222       23.98052
C          7.74115       23.74982       22.75082
C          8.95695       23.04792       22.75082
C          9.38795       22.48622       23.98052
C          9.75125       21.13022       23.98052
C          9.65885       20.42832       22.75082
C          8.95695       19.21252       22.75082
C          8.39525       18.78152       23.98052
C          8.39525       18.78152       21.52102
C          7.03925       18.41822       21.52102
C          6.33735       18.51062       22.75082
C          5.12155       19.21252       22.75082
C          4.69055       19.77422       21.52102
C          4.32725       21.13022       21.52102
C          4.41965       21.83212       22.75082
C          5.12155       23.04792       22.75082
C          5.68325       23.47892       21.52102
C          9.75125       21.13022       21.52102
C          9.38795       22.48622       21.52102
C          7.03925       23.84222       21.52102
C          5.68325       23.47892       23.98052
C          4.32725       21.13022       23.98052
C          4.69055       19.77422       23.98052
C          7.03925       18.41822       23.98052
C          8.95695       19.21252       25.21032
C          9.65885       20.42832       25.21032
C          8.95695       23.04792       25.21032
C          7.74115       23.74982       27.66982
C          5.12155       23.04792       27.66982
C          4.41965       21.83212       27.66982
C          5.12155       19.21252       27.66982
C          7.03925       18.41822       28.89952
C          8.39525       18.78152       28.89952
C          9.75125       21.13022       28.89952
C          9.38795       22.48622       31.35902
C          7.03925       23.84222       31.35902
C          5.68325       23.47892       31.35902
C          4.32725       21.13022       31.35902
C          5.12155       19.21252       32.58882
C          6.33735       18.51062       32.58882
C          8.95695       19.21252       32.58882
C          9.65885       20.42832       35.04832
C          8.95695       23.04792       35.04832
C          7.74115       23.74982       35.04832
C          5.12155       23.04792       35.04832
C          4.32725       21.13022       36.27812
C          5.68325       23.47892       38.73762
C          7.03925       23.84222       38.73762
C          9.38795       22.48622       38.73762
C          9.65885       20.42832       39.96732
C          8.95695       19.21252       39.96732
C          8.95695       23.04792       42.42692
C          7.74115       23.74982       42.42692
C          5.12155       23.04792       42.42692
C          4.41965       21.83212       42.42692
C          8.39525       18.78152       43.65662
C          5.12155       19.21252       42.42692
C          8.39525       18.78152       41.19712
C          5.12155       19.21252       39.96732
C          8.39525       18.78152       38.73762
C          5.12155       19.21252       37.50782
C          7.03925       18.41822       36.27812
